HEADER
"PSFversion" "1.00"
"I0n" "DFF_sync"
"V0n" "analogLib_vsource_spectre"
"default_confign" "analogLib_vpulse_spectre"
"V3n V1n" "analogLib_vdc_spectre"
