HEADER
"PSFversion" "1.00"
"simulator" "spectre"
"version" "18.1.0.556.isr13"
"date" "10:18:21 PM, Mon May 2, 2022"
"design" "// Generated for: spectre"
"analysis type" "info.subckts"
"analysis name" "subckts"
"analysis description" "Circuit Information"
"xVecSorted" "unknown"
"tolerance.relative" 0.00100000
TYPE
"subckt" STRUCT(
"subckt_params" STRING *
"subckt_terminals" STRING *
"subckt_instances" STRING *
) PROP(
"key" "sub"
)
VALUE
"inverter" "subckt" (
""
"A GND VDD Y"
"I0.I18.I7.I14 I0.I18.I6.I14 I0.I18.I5.I14 I0.I18.I4.I14 I0.I18.I3.I14 I0.I18.I2.I14 I0.I18.I1.I14 I0.I18.I0.I14 I0.I11.I7.I14 I0.I11.I6.I14 I0.I11.I5.I14 I0.I11.I4.I14 I0.I11.I3.I14 I0.I11.I2.I14 I0.I11.I1.I14 I0.I11.I0.I14 I0.I10.I7.I14 I0.I10.I6.I14 I0.I10.I5.I14 I0.I10.I4.I14 I0.I10.I3.I14 I0.I10.I2.I14 I0.I10.I1.I14 I0.I10.I0.I14 I0.I9.I7.I14 I0.I9.I6.I14 I0.I9.I5.I14 I0.I9.I4.I14 I0.I9.I3.I14 I0.I9.I2.I14 I0.I9.I1.I14 I0.I9.I0.I14 I0.I13.I7.I14 I0.I13.I6.I14 I0.I13.I5.I14 I0.I13.I4.I14 I0.I13.I3.I14 I0.I13.I2.I14 I0.I13.I1.I14 I0.I13.I0.I14 I0.I14.I7.I14 I0.I14.I6.I14 I0.I14.I5.I14 I0.I14.I4.I14 I0.I14.I3.I14 I0.I14.I2.I14 I0.I14.I1.I14 I0.I14.I0.I14 I0.I17.I7.I14 I0.I17.I6.I14 I0.I17.I5.I14 I0.I17.I4.I14 I0.I17.I3.I14 I0.I17.I2.I14 I0.I17.I1.I14 I0.I17.I0.I14 I0.I16.I7.I14 I0.I16.I6.I14 I0.I16.I5.I14 I0.I16.I4.I14 I0.I16.I3.I14 I0.I16.I2.I14 I0.I16.I1.I14 I0.I16.I0.I14 I0.I15.I7.I14 I0.I15.I6.I14 I0.I15.I5.I14 I0.I15.I4.I14 I0.I15.I3.I14 I0.I15.I2.I14 I0.I15.I1.I14 I0.I15.I0.I14"
)
"shift_reg" "subckt" (
""
"BL<7> BL<6> BL<5> BL<4> BL<3> BL<2> BL<1> BL<0> BM<7> BM<6> BM<5> BM<4> BM<3> BM<2> BM<1> BM<0> BR<7> BR<6> BR<5> BR<4> BR<3> BR<2> BR<1> BR<0> ML<7> ML<6> ML<5> ML<4> ML<3> ML<2> ML<1> ML<0> MR<7> MR<6> MR<5> MR<4> MR<3> MR<2> MR<1> MR<0> TL<7> TL<6> TL<5> TL<4> TL<3> TL<2> TL<1> TL<0> TM<7> TM<6> TM<5> TM<4> TM<3> TM<2> TM<1> TM<0> TR<7> TR<6> TR<5> TR<4> TR<3> TR<2> TR<1> TR<0> bot_L<7> bot_L<6> bot_L<5> bot_L<4> bot_L<3> bot_L<2> bot_L<1> bot_L<0> clk gnd mid_L<7> mid_L<6> mid_L<5> mid_L<4> mid_L<3> mid_L<2> mid_L<1> mid_L<0> up_L<7> up_L<6> up_L<5> up_L<4> up_L<3> up_L<2> up_L<1> up_L<0> vdd"
"I0"
)
"sample_data_input" "subckt" (
""
"bottom<7> bottom<6> bottom<5> bottom<4> bottom<3> bottom<2> bottom<1> bottom<0> middle<7> middle<6> middle<5> middle<4> middle<3> middle<2> middle<1> middle<0> top<7> top<6> top<5> top<4> top<3> top<2> top<1> top<0> 0"
"I2"
)
"DFF_sync" "subckt" (
""
"D Q Q_bar clk gnd vdd"
"I0.I18.I7 I0.I18.I6 I0.I18.I5 I0.I18.I4 I0.I18.I3 I0.I18.I2 I0.I18.I1 I0.I18.I0 I0.I11.I7 I0.I11.I6 I0.I11.I5 I0.I11.I4 I0.I11.I3 I0.I11.I2 I0.I11.I1 I0.I11.I0 I0.I10.I7 I0.I10.I6 I0.I10.I5 I0.I10.I4 I0.I10.I3 I0.I10.I2 I0.I10.I1 I0.I10.I0 I0.I9.I7 I0.I9.I6 I0.I9.I5 I0.I9.I4 I0.I9.I3 I0.I9.I2 I0.I9.I1 I0.I9.I0 I0.I13.I7 I0.I13.I6 I0.I13.I5 I0.I13.I4 I0.I13.I3 I0.I13.I2 I0.I13.I1 I0.I13.I0 I0.I14.I7 I0.I14.I6 I0.I14.I5 I0.I14.I4 I0.I14.I3 I0.I14.I2 I0.I14.I1 I0.I14.I0 I0.I17.I7 I0.I17.I6 I0.I17.I5 I0.I17.I4 I0.I17.I3 I0.I17.I2 I0.I17.I1 I0.I17.I0 I0.I16.I7 I0.I16.I6 I0.I16.I5 I0.I16.I4 I0.I16.I3 I0.I16.I2 I0.I16.I1 I0.I16.I0 I0.I15.I7 I0.I15.I6 I0.I15.I5 I0.I15.I4 I0.I15.I3 I0.I15.I2 I0.I15.I1 I0.I15.I0"
)
"clock" "subckt" (
""
"clk 0"
"I4"
)
"sobel_operator_8bit_reg_schematic" "subckt" (
""
"D<7> D<6> D<5> D<4> D<3> D<2> D<1> D<0> Q<7> Q<6> Q<5> Q<4> Q<3> Q<2> Q<1> Q<0> Q_bar<7> Q_bar<6> Q_bar<5> Q_bar<4> Q_bar<3> Q_bar<2> Q_bar<1> Q_bar<0> clk gnd vdd"
"I0.I18 I0.I11 I0.I10 I0.I9 I0.I13 I0.I14 I0.I17 I0.I16 I0.I15"
)
"NAND2" "subckt" (
""
"A B Y gnd vdd"
"I0.I18.I7.I11 I0.I18.I7.I10 I0.I18.I7.I13 I0.I18.I7.I12 I0.I18.I6.I11 I0.I18.I6.I10 I0.I18.I6.I13 I0.I18.I6.I12 I0.I18.I5.I11 I0.I18.I5.I10 I0.I18.I5.I13 I0.I18.I5.I12 I0.I18.I4.I11 I0.I18.I4.I10 I0.I18.I4.I13 I0.I18.I4.I12 I0.I18.I3.I11 I0.I18.I3.I10 I0.I18.I3.I13 I0.I18.I3.I12 I0.I18.I2.I11 I0.I18.I2.I10 I0.I18.I2.I13 I0.I18.I2.I12 I0.I18.I1.I11 I0.I18.I1.I10 I0.I18.I1.I13 I0.I18.I1.I12 I0.I18.I0.I11 I0.I18.I0.I10 I0.I18.I0.I13 I0.I18.I0.I12 I0.I11.I7.I11 I0.I11.I7.I10 I0.I11.I7.I13 I0.I11.I7.I12 I0.I11.I6.I11 I0.I11.I6.I10 I0.I11.I6.I13 I0.I11.I6.I12 I0.I11.I5.I11 I0.I11.I5.I10 I0.I11.I5.I13 I0.I11.I5.I12 I0.I11.I4.I11 I0.I11.I4.I10 I0.I11.I4.I13 I0.I11.I4.I12 I0.I11.I3.I11 I0.I11.I3.I10 I0.I11.I3.I13 I0.I11.I3.I12 I0.I11.I2.I11 I0.I11.I2.I10 I0.I11.I2.I13 I0.I11.I2.I12 I0.I11.I1.I11 I0.I11.I1.I10 I0.I11.I1.I13 I0.I11.I1.I12 I0.I11.I0.I11 I0.I11.I0.I10 I0.I11.I0.I13 I0.I11.I0.I12 I0.I10.I7.I11 I0.I10.I7.I10 I0.I10.I7.I13 I0.I10.I7.I12 I0.I10.I6.I11 I0.I10.I6.I10 I0.I10.I6.I13 I0.I10.I6.I12 I0.I10.I5.I11 I0.I10.I5.I10 I0.I10.I5.I13 I0.I10.I5.I12 I0.I10.I4.I11 I0.I10.I4.I10 I0.I10.I4.I13 I0.I10.I4.I12 I0.I10.I3.I11 I0.I10.I3.I10 I0.I10.I3.I13 I0.I10.I3.I12 I0.I10.I2.I11 I0.I10.I2.I10 I0.I10.I2.I13 I0.I10.I2.I12 I0.I10.I1.I11 I0.I10.I1.I10 I0.I10.I1.I13 I0.I10.I1.I12 I0.I10.I0.I11 I0.I10.I0.I10 I0.I10.I0.I13 I0.I10.I0.I12 I0.I9.I7.I11 I0.I9.I7.I10 I0.I9.I7.I13 I0.I9.I7.I12 I0.I9.I6.I11 I0.I9.I6.I10 I0.I9.I6.I13 I0.I9.I6.I12 I0.I9.I5.I11 I0.I9.I5.I10 I0.I9.I5.I13 I0.I9.I5.I12 I0.I9.I4.I11 I0.I9.I4.I10 I0.I9.I4.I13 I0.I9.I4.I12 I0.I9.I3.I11 I0.I9.I3.I10 I0.I9.I3.I13 I0.I9.I3.I12 I0.I9.I2.I11 I0.I9.I2.I10 I0.I9.I2.I13 I0.I9.I2.I12 I0.I9.I1.I11 I0.I9.I1.I10 I0.I9.I1.I13 I0.I9.I1.I12 I0.I9.I0.I11 I0.I9.I0.I10 I0.I9.I0.I13 I0.I9.I0.I12 I0.I13.I7.I11 I0.I13.I7.I10 I0.I13.I7.I13 I0.I13.I7.I12 I0.I13.I6.I11 I0.I13.I6.I10 I0.I13.I6.I13 I0.I13.I6.I12 I0.I13.I5.I11 I0.I13.I5.I10 I0.I13.I5.I13 I0.I13.I5.I12 I0.I13.I4.I11 I0.I13.I4.I10 I0.I13.I4.I13 I0.I13.I4.I12 I0.I13.I3.I11 I0.I13.I3.I10 I0.I13.I3.I13 I0.I13.I3.I12 I0.I13.I2.I11 I0.I13.I2.I10 I0.I13.I2.I13 I0.I13.I2.I12 I0.I13.I1.I11 I0.I13.I1.I10 I0.I13.I1.I13 I0.I13.I1.I12 I0.I13.I0.I11 I0.I13.I0.I10 I0.I13.I0.I13 I0.I13.I0.I12 I0.I14.I7.I11 I0.I14.I7.I10 I0.I14.I7.I13 I0.I14.I7.I12 I0.I14.I6.I11 I0.I14.I6.I10 I0.I14.I6.I13 I0.I14.I6.I12 I0.I14.I5.I11 I0.I14.I5.I10 I0.I14.I5.I13 I0.I14.I5.I12 I0.I14.I4.I11 I0.I14.I4.I10 I0.I14.I4.I13 I0.I14.I4.I12 I0.I14.I3.I11 I0.I14.I3.I10 I0.I14.I3.I13 I0.I14.I3.I12 I0.I14.I2.I11 I0.I14.I2.I10 I0.I14.I2.I13 I0.I14.I2.I12 I0.I14.I1.I11 I0.I14.I1.I10 I0.I14.I1.I13 I0.I14.I1.I12 I0.I14.I0.I11 I0.I14.I0.I10 I0.I14.I0.I13 I0.I14.I0.I12 I0.I17.I7.I11 I0.I17.I7.I10 I0.I17.I7.I13 I0.I17.I7.I12 I0.I17.I6.I11 I0.I17.I6.I10 I0.I17.I6.I13 I0.I17.I6.I12 I0.I17.I5.I11 I0.I17.I5.I10 I0.I17.I5.I13 I0.I17.I5.I12 I0.I17.I4.I11 I0.I17.I4.I10 I0.I17.I4.I13 I0.I17.I4.I12 I0.I17.I3.I11 I0.I17.I3.I10 I0.I17.I3.I13 I0.I17.I3.I12 I0.I17.I2.I11 I0.I17.I2.I10 I0.I17.I2.I13 I0.I17.I2.I12 I0.I17.I1.I11 I0.I17.I1.I10 I0.I17.I1.I13 I0.I17.I1.I12 I0.I17.I0.I11 I0.I17.I0.I10 I0.I17.I0.I13 I0.I17.I0.I12 I0.I16.I7.I11 I0.I16.I7.I10 I0.I16.I7.I13 I0.I16.I7.I12 I0.I16.I6.I11 I0.I16.I6.I10 I0.I16.I6.I13 I0.I16.I6.I12 I0.I16.I5.I11 I0.I16.I5.I10 I0.I16.I5.I13 I0.I16.I5.I12 I0.I16.I4.I11 I0.I16.I4.I10 I0.I16.I4.I13 I0.I16.I4.I12 I0.I16.I3.I11 I0.I16.I3.I10 I0.I16.I3.I13 I0.I16.I3.I12 I0.I16.I2.I11 I0.I16.I2.I10 I0.I16.I2.I13 I0.I16.I2.I12 I0.I16.I1.I11 I0.I16.I1.I10 I0.I16.I1.I13 I0.I16.I1.I12 I0.I16.I0.I11 I0.I16.I0.I10 I0.I16.I0.I13 I0.I16.I0.I12 I0.I15.I7.I11 I0.I15.I7.I10 I0.I15.I7.I13 I0.I15.I7.I12 I0.I15.I6.I11 I0.I15.I6.I10 I0.I15.I6.I13 I0.I15.I6.I12 I0.I15.I5.I11 I0.I15.I5.I10 I0.I15.I5.I13 I0.I15.I5.I12 I0.I15.I4.I11 I0.I15.I4.I10 I0.I15.I4.I13 I0.I15.I4.I12 I0.I15.I3.I11 I0.I15.I3.I10 I0.I15.I3.I13 I0.I15.I3.I12 I0.I15.I2.I11 I0.I15.I2.I10 I0.I15.I2.I13 I0.I15.I2.I12 I0.I15.I1.I11 I0.I15.I1.I10 I0.I15.I1.I13 I0.I15.I1.I12 I0.I15.I0.I11 I0.I15.I0.I10 I0.I15.I0.I13 I0.I15.I0.I12"
)
END
