HEADER
"PSFversion" "1.00"
"design" "(\"sobel_operator\" \"test_transform\" \"schematic\" \"\")"
"simulator" "spectre"
"temperature" "27"
"host" ""
"date" "May  3 17:07:19 2022"
"title" ""
"analysisList" "()"
END
