HEADER
"PSFversion" "1.00"
"simulator" "spectre"
"version" "18.1.0.556.isr13"
"date" "5:07:23 PM, Tue May 3, 2022"
"design" "// Generated for: spectre"
"analysis type" "info.subckts"
"analysis name" "subckts"
"analysis description" "Circuit Information"
"xVecSorted" "unknown"
"tolerance.relative" 0.00100000
TYPE
"subckt" STRUCT(
"subckt_params" STRING *
"subckt_terminals" STRING *
"subckt_instances" STRING *
) PROP(
"key" "sub"
)
VALUE
"Shifter" "subckt" (
""
"Gnd In<7> In<6> In<5> In<4> In<3> In<2> In<1> In<0> Out<7> Out<6> Out<5> Out<4> Out<3> Out<2> Out<1> Out<0> S Vdd"
"I7.I0 I7.I1.I1"
)
"inverter" "subckt" (
""
"A GND VDD Y"
"I7.I0.I21.I1 I7.I0.I20.I1 I7.I0.I19.I1 I7.I0.I18.I1 I7.I0.I17.I1 I7.I0.I16.I1 I7.I0.I15.I1 I7.I0.I14.I1 I7.I0.I13.I1 I7.I0.I12.I1 I7.I0.I11.I1 I7.I0.I2.I1 I7.I0.I1.I1 I7.I0.I0.I1 I7.I0.I22 I7.I0.I28.I0 I7.I0.I27.I0 I7.I0.I26.I0 I7.I0.I25.I0 I7.I0.I24.I0 I7.I0.I23.I0 I7.I1.I0.I8 I7.I1.I0.I7 I7.I1.I0.I6 I7.I1.I0.I5 I7.I1.I0.I4 I7.I1.I0.I3 I7.I1.I0.I2 I7.I1.I0.I1 I7.I1.I1.I21.I1 I7.I1.I1.I20.I1 I7.I1.I1.I19.I1 I7.I1.I1.I18.I1 I7.I1.I1.I17.I1 I7.I1.I1.I16.I1 I7.I1.I1.I15.I1 I7.I1.I1.I14.I1 I7.I1.I1.I13.I1 I7.I1.I1.I12.I1 I7.I1.I1.I11.I1 I7.I1.I1.I2.I1 I7.I1.I1.I1.I1 I7.I1.I1.I0.I1 I7.I1.I1.I22 I7.I1.I1.I28.I0 I7.I1.I1.I27.I0 I7.I1.I1.I26.I0 I7.I1.I1.I25.I0 I7.I1.I1.I24.I0 I7.I1.I1.I23.I0 I7.I3.I8 I7.I3.I7 I7.I3.I6 I7.I3.I5 I7.I3.I4 I7.I3.I3 I7.I3.I2 I7.I3.I1 I7.I2.I8 I7.I2.I7 I7.I2.I6 I7.I2.I5 I7.I2.I4 I7.I2.I3 I7.I2.I2 I7.I2.I1 I7.I13.I0.I1 I7.I13.I1.I0 I7.I12.I0.I1 I7.I12.I1.I0 I7.I11.I0.I1 I7.I11.I1.I0 I1.I18.I7.I14 I1.I18.I6.I14 I1.I18.I5.I14 I1.I18.I4.I14 I1.I18.I3.I14 I1.I18.I2.I14 I1.I18.I1.I14 I1.I18.I0.I14 I1.I11.I7.I14 I1.I11.I6.I14 I1.I11.I5.I14 I1.I11.I4.I14 I1.I11.I3.I14 I1.I11.I2.I14 I1.I11.I1.I14 I1.I11.I0.I14 I1.I10.I7.I14 I1.I10.I6.I14 I1.I10.I5.I14 I1.I10.I4.I14 I1.I10.I3.I14 I1.I10.I2.I14 I1.I10.I1.I14 I1.I10.I0.I14 I1.I9.I7.I14 I1.I9.I6.I14 I1.I9.I5.I14 I1.I9.I4.I14 I1.I9.I3.I14 I1.I9.I2.I14 I1.I9.I1.I14 I1.I9.I0.I14 I1.I13.I7.I14 I1.I13.I6.I14 I1.I13.I5.I14 I1.I13.I4.I14 I1.I13.I3.I14 I1.I13.I2.I14 I1.I13.I1.I14 I1.I13.I0.I14 I1.I14.I7.I14 I1.I14.I6.I14 I1.I14.I5.I14 I1.I14.I4.I14 I1.I14.I3.I14 I1.I14.I2.I14 I1.I14.I1.I14 I1.I14.I0.I14 I1.I17.I7.I14 I1.I17.I6.I14 I1.I17.I5.I14 I1.I17.I4.I14 I1.I17.I3.I14 I1.I17.I2.I14 I1.I17.I1.I14 I1.I17.I0.I14 I1.I16.I7.I14 I1.I16.I6.I14 I1.I16.I5.I14 I1.I16.I4.I14 I1.I16.I3.I14 I1.I16.I2.I14 I1.I16.I1.I14 I1.I16.I0.I14 I1.I15.I7.I14 I1.I15.I6.I14 I1.I15.I5.I14 I1.I15.I4.I14 I1.I15.I3.I14 I1.I15.I2.I14 I1.I15.I1.I14 I1.I15.I0.I14"
)
"shift_reg" "subckt" (
""
"BL<7> BL<6> BL<5> BL<4> BL<3> BL<2> BL<1> BL<0> BM<7> BM<6> BM<5> BM<4> BM<3> BM<2> BM<1> BM<0> BR<7> BR<6> BR<5> BR<4> BR<3> BR<2> BR<1> BR<0> ML<7> ML<6> ML<5> ML<4> ML<3> ML<2> ML<1> ML<0> MR<7> MR<6> MR<5> MR<4> MR<3> MR<2> MR<1> MR<0> TL<7> TL<6> TL<5> TL<4> TL<3> TL<2> TL<1> TL<0> TM<7> TM<6> TM<5> TM<4> TM<3> TM<2> TM<1> TM<0> TR<7> TR<6> TR<5> TR<4> TR<3> TR<2> TR<1> TR<0> bot_L<7> bot_L<6> bot_L<5> bot_L<4> bot_L<3> bot_L<2> bot_L<1> bot_L<0> clk gnd mid_L<7> mid_L<6> mid_L<5> mid_L<4> mid_L<3> mid_L<2> mid_L<1> mid_L<0> up_L<7> up_L<6> up_L<5> up_L<4> up_L<3> up_L<2> up_L<1> up_L<0> vdd"
"I1"
)
"XOR2" "subckt" (
""
"A B Gnd Out Vdd"
"I7.I13 I7.I12 I7.I11"
)
"Minus2" "subckt" (
""
"C_Out Gnd In<7> In<6> In<5> In<4> In<3> In<2> In<1> In<0> Out<7> Out<6> Out<5> Out<4> Out<3> Out<2> Out<1> Out<0> Vdd one<7> one<6> one<5> one<4> one<3> one<2> one<1> one<0>"
"I7.I1"
)
"Minus1" "subckt" (
""
"C_Out Gnd In<7> In<6> In<5> In<4> In<3> In<2> In<1> In<0> Out<7> Out<6> Out<5> Out<4> Out<3> Out<2> Out<1> Out<0> Vdd one<7> one<6> one<5> one<4> one<3> one<2> one<1> one<0>"
"I7.I1.I0 I7.I3 I7.I2"
)
"sample_data_input" "subckt" (
""
"bottom<7> bottom<6> bottom<5> bottom<4> bottom<3> bottom<2> bottom<1> bottom<0> middle<7> middle<6> middle<5> middle<4> middle<3> middle<2> middle<1> middle<0> top<7> top<6> top<5> top<4> top<3> top<2> top<1> top<0> 0"
"I2"
)
"AND2" "subckt" (
""
"A B Gnd Out Vdd"
"I7.I0.I21 I7.I0.I20 I7.I0.I19 I7.I0.I18 I7.I0.I17 I7.I0.I16 I7.I0.I15 I7.I0.I14 I7.I0.I13 I7.I0.I12 I7.I0.I11 I7.I0.I2 I7.I0.I1 I7.I0.I0 I7.I1.I1.I21 I7.I1.I1.I20 I7.I1.I1.I19 I7.I1.I1.I18 I7.I1.I1.I17 I7.I1.I1.I16 I7.I1.I1.I15 I7.I1.I1.I14 I7.I1.I1.I13 I7.I1.I1.I12 I7.I1.I1.I11 I7.I1.I1.I2 I7.I1.I1.I1 I7.I1.I1.I0 I7.I13.I0 I7.I12.I0 I7.I11.I0"
)
"sobel_operator_8bit_one_schematic" "subckt" (
""
"One<7> One<6> One<5> One<4> One<3> One<2> One<1> One<0> 0"
"I4"
)
"DFF_sync" "subckt" (
""
"D Q Q_bar clk gnd vdd"
"I1.I18.I7 I1.I18.I6 I1.I18.I5 I1.I18.I4 I1.I18.I3 I1.I18.I2 I1.I18.I1 I1.I18.I0 I1.I11.I7 I1.I11.I6 I1.I11.I5 I1.I11.I4 I1.I11.I3 I1.I11.I2 I1.I11.I1 I1.I11.I0 I1.I10.I7 I1.I10.I6 I1.I10.I5 I1.I10.I4 I1.I10.I3 I1.I10.I2 I1.I10.I1 I1.I10.I0 I1.I9.I7 I1.I9.I6 I1.I9.I5 I1.I9.I4 I1.I9.I3 I1.I9.I2 I1.I9.I1 I1.I9.I0 I1.I13.I7 I1.I13.I6 I1.I13.I5 I1.I13.I4 I1.I13.I3 I1.I13.I2 I1.I13.I1 I1.I13.I0 I1.I14.I7 I1.I14.I6 I1.I14.I5 I1.I14.I4 I1.I14.I3 I1.I14.I2 I1.I14.I1 I1.I14.I0 I1.I17.I7 I1.I17.I6 I1.I17.I5 I1.I17.I4 I1.I17.I3 I1.I17.I2 I1.I17.I1 I1.I17.I0 I1.I16.I7 I1.I16.I6 I1.I16.I5 I1.I16.I4 I1.I16.I3 I1.I16.I2 I1.I16.I1 I1.I16.I0 I1.I15.I7 I1.I15.I6 I1.I15.I5 I1.I15.I4 I1.I15.I3 I1.I15.I2 I1.I15.I1 I1.I15.I0"
)
"clock" "subckt" (
""
"clk 0"
"I3"
)
"OR2" "subckt" (
""
"A B Gnd Out Vdd"
"I7.I0.I28 I7.I0.I27 I7.I0.I26 I7.I0.I25 I7.I0.I24 I7.I0.I23 I7.I1.I1.I28 I7.I1.I1.I27 I7.I1.I1.I26 I7.I1.I1.I25 I7.I1.I1.I24 I7.I1.I1.I23 I7.I13.I1 I7.I12.I1 I7.I11.I1"
)
"sobel_operator_8bit_reg_schematic" "subckt" (
""
"D<7> D<6> D<5> D<4> D<3> D<2> D<1> D<0> Q<7> Q<6> Q<5> Q<4> Q<3> Q<2> Q<1> Q<0> Q_bar<7> Q_bar<6> Q_bar<5> Q_bar<4> Q_bar<3> Q_bar<2> Q_bar<1> Q_bar<0> clk gnd vdd"
"I1.I18 I1.I11 I1.I10 I1.I9 I1.I13 I1.I14 I1.I17 I1.I16 I1.I15"
)
"full_adder" "subckt" (
""
"a b c_in c_out gnd sum vdd"
"I7.I1.I0.I16.I7 I7.I1.I0.I16.I6 I7.I1.I0.I16.I5 I7.I1.I0.I16.I4 I7.I1.I0.I16.I3 I7.I1.I0.I16.I2 I7.I1.I0.I16.I1 I7.I1.I0.I16.I0 I7.I3.I16.I7 I7.I3.I16.I6 I7.I3.I16.I5 I7.I3.I16.I4 I7.I3.I16.I3 I7.I3.I16.I2 I7.I3.I16.I1 I7.I3.I16.I0 I7.I2.I16.I7 I7.I2.I16.I6 I7.I2.I16.I5 I7.I2.I16.I4 I7.I2.I16.I3 I7.I2.I16.I2 I7.I2.I16.I1 I7.I2.I16.I0 I7.I10.I7 I7.I10.I6 I7.I10.I5 I7.I10.I4 I7.I10.I3 I7.I10.I2 I7.I10.I1 I7.I10.I0 I7.I9.I7 I7.I9.I6 I7.I9.I5 I7.I9.I4 I7.I9.I3 I7.I9.I2 I7.I9.I1 I7.I9.I0 I7.I8.I7 I7.I8.I6 I7.I8.I5 I7.I8.I4 I7.I8.I3 I7.I8.I2 I7.I8.I1 I7.I8.I0 I7.I7.I7 I7.I7.I6 I7.I7.I5 I7.I7.I4 I7.I7.I3 I7.I7.I2 I7.I7.I1 I7.I7.I0 I7.I6.I7 I7.I6.I6 I7.I6.I5 I7.I6.I4 I7.I6.I3 I7.I6.I2 I7.I6.I1 I7.I6.I0"
)
"NAND2" "subckt" (
""
"A B Y gnd vdd"
"I7.I0.I21.I0 I7.I0.I20.I0 I7.I0.I19.I0 I7.I0.I18.I0 I7.I0.I17.I0 I7.I0.I16.I0 I7.I0.I15.I0 I7.I0.I14.I0 I7.I0.I13.I0 I7.I0.I12.I0 I7.I0.I11.I0 I7.I0.I2.I0 I7.I0.I1.I0 I7.I0.I0.I0 I7.I1.I1.I21.I0 I7.I1.I1.I20.I0 I7.I1.I1.I19.I0 I7.I1.I1.I18.I0 I7.I1.I1.I17.I0 I7.I1.I1.I16.I0 I7.I1.I1.I15.I0 I7.I1.I1.I14.I0 I7.I1.I1.I13.I0 I7.I1.I1.I12.I0 I7.I1.I1.I11.I0 I7.I1.I1.I2.I0 I7.I1.I1.I1.I0 I7.I1.I1.I0.I0 I7.I13.I0.I0 I7.I13.I2 I7.I12.I0.I0 I7.I12.I2 I7.I11.I0.I0 I7.I11.I2 I1.I18.I7.I11 I1.I18.I7.I10 I1.I18.I7.I13 I1.I18.I7.I12 I1.I18.I6.I11 I1.I18.I6.I10 I1.I18.I6.I13 I1.I18.I6.I12 I1.I18.I5.I11 I1.I18.I5.I10 I1.I18.I5.I13 I1.I18.I5.I12 I1.I18.I4.I11 I1.I18.I4.I10 I1.I18.I4.I13 I1.I18.I4.I12 I1.I18.I3.I11 I1.I18.I3.I10 I1.I18.I3.I13 I1.I18.I3.I12 I1.I18.I2.I11 I1.I18.I2.I10 I1.I18.I2.I13 I1.I18.I2.I12 I1.I18.I1.I11 I1.I18.I1.I10 I1.I18.I1.I13 I1.I18.I1.I12 I1.I18.I0.I11 I1.I18.I0.I10 I1.I18.I0.I13 I1.I18.I0.I12 I1.I11.I7.I11 I1.I11.I7.I10 I1.I11.I7.I13 I1.I11.I7.I12 I1.I11.I6.I11 I1.I11.I6.I10 I1.I11.I6.I13 I1.I11.I6.I12 I1.I11.I5.I11 I1.I11.I5.I10 I1.I11.I5.I13 I1.I11.I5.I12 I1.I11.I4.I11 I1.I11.I4.I10 I1.I11.I4.I13 I1.I11.I4.I12 I1.I11.I3.I11 I1.I11.I3.I10 I1.I11.I3.I13 I1.I11.I3.I12 I1.I11.I2.I11 I1.I11.I2.I10 I1.I11.I2.I13 I1.I11.I2.I12 I1.I11.I1.I11 I1.I11.I1.I10 I1.I11.I1.I13 I1.I11.I1.I12 I1.I11.I0.I11 I1.I11.I0.I10 I1.I11.I0.I13 I1.I11.I0.I12 I1.I10.I7.I11 I1.I10.I7.I10 I1.I10.I7.I13 I1.I10.I7.I12 I1.I10.I6.I11 I1.I10.I6.I10 I1.I10.I6.I13 I1.I10.I6.I12 I1.I10.I5.I11 I1.I10.I5.I10 I1.I10.I5.I13 I1.I10.I5.I12 I1.I10.I4.I11 I1.I10.I4.I10 I1.I10.I4.I13 I1.I10.I4.I12 I1.I10.I3.I11 I1.I10.I3.I10 I1.I10.I3.I13 I1.I10.I3.I12 I1.I10.I2.I11 I1.I10.I2.I10 I1.I10.I2.I13 I1.I10.I2.I12 I1.I10.I1.I11 I1.I10.I1.I10 I1.I10.I1.I13 I1.I10.I1.I12 I1.I10.I0.I11 I1.I10.I0.I10 I1.I10.I0.I13 I1.I10.I0.I12 I1.I9.I7.I11 I1.I9.I7.I10 I1.I9.I7.I13 I1.I9.I7.I12 I1.I9.I6.I11 I1.I9.I6.I10 I1.I9.I6.I13 I1.I9.I6.I12 I1.I9.I5.I11 I1.I9.I5.I10 I1.I9.I5.I13 I1.I9.I5.I12 I1.I9.I4.I11 I1.I9.I4.I10 I1.I9.I4.I13 I1.I9.I4.I12 I1.I9.I3.I11 I1.I9.I3.I10 I1.I9.I3.I13 I1.I9.I3.I12 I1.I9.I2.I11 I1.I9.I2.I10 I1.I9.I2.I13 I1.I9.I2.I12 I1.I9.I1.I11 I1.I9.I1.I10 I1.I9.I1.I13 I1.I9.I1.I12 I1.I9.I0.I11 I1.I9.I0.I10 I1.I9.I0.I13 I1.I9.I0.I12 I1.I13.I7.I11 I1.I13.I7.I10 I1.I13.I7.I13 I1.I13.I7.I12 I1.I13.I6.I11 I1.I13.I6.I10 I1.I13.I6.I13 I1.I13.I6.I12 I1.I13.I5.I11 I1.I13.I5.I10 I1.I13.I5.I13 I1.I13.I5.I12 I1.I13.I4.I11 I1.I13.I4.I10 I1.I13.I4.I13 I1.I13.I4.I12 I1.I13.I3.I11 I1.I13.I3.I10 I1.I13.I3.I13 I1.I13.I3.I12 I1.I13.I2.I11 I1.I13.I2.I10 I1.I13.I2.I13 I1.I13.I2.I12 I1.I13.I1.I11 I1.I13.I1.I10 I1.I13.I1.I13 I1.I13.I1.I12 I1.I13.I0.I11 I1.I13.I0.I10 I1.I13.I0.I13 I1.I13.I0.I12 I1.I14.I7.I11 I1.I14.I7.I10 I1.I14.I7.I13 I1.I14.I7.I12 I1.I14.I6.I11 I1.I14.I6.I10 I1.I14.I6.I13 I1.I14.I6.I12 I1.I14.I5.I11 I1.I14.I5.I10 I1.I14.I5.I13 I1.I14.I5.I12 I1.I14.I4.I11 I1.I14.I4.I10 I1.I14.I4.I13 I1.I14.I4.I12 I1.I14.I3.I11 I1.I14.I3.I10 I1.I14.I3.I13 I1.I14.I3.I12 I1.I14.I2.I11 I1.I14.I2.I10 I1.I14.I2.I13 I1.I14.I2.I12 I1.I14.I1.I11 I1.I14.I1.I10 I1.I14.I1.I13 I1.I14.I1.I12 I1.I14.I0.I11 I1.I14.I0.I10 I1.I14.I0.I13 I1.I14.I0.I12 I1.I17.I7.I11 I1.I17.I7.I10 I1.I17.I7.I13 I1.I17.I7.I12 I1.I17.I6.I11 I1.I17.I6.I10 I1.I17.I6.I13 I1.I17.I6.I12 I1.I17.I5.I11 I1.I17.I5.I10 I1.I17.I5.I13 I1.I17.I5.I12 I1.I17.I4.I11 I1.I17.I4.I10 I1.I17.I4.I13 I1.I17.I4.I12 I1.I17.I3.I11 I1.I17.I3.I10 I1.I17.I3.I13 I1.I17.I3.I12 I1.I17.I2.I11 I1.I17.I2.I10 I1.I17.I2.I13 I1.I17.I2.I12 I1.I17.I1.I11 I1.I17.I1.I10 I1.I17.I1.I13 I1.I17.I1.I12 I1.I17.I0.I11 I1.I17.I0.I10 I1.I17.I0.I13 I1.I17.I0.I12 I1.I16.I7.I11 I1.I16.I7.I10 I1.I16.I7.I13 I1.I16.I7.I12 I1.I16.I6.I11 I1.I16.I6.I10 I1.I16.I6.I13 I1.I16.I6.I12 I1.I16.I5.I11 I1.I16.I5.I10 I1.I16.I5.I13 I1.I16.I5.I12 I1.I16.I4.I11 I1.I16.I4.I10 I1.I16.I4.I13 I1.I16.I4.I12 I1.I16.I3.I11 I1.I16.I3.I10 I1.I16.I3.I13 I1.I16.I3.I12 I1.I16.I2.I11 I1.I16.I2.I10 I1.I16.I2.I13 I1.I16.I2.I12 I1.I16.I1.I11 I1.I16.I1.I10 I1.I16.I1.I13 I1.I16.I1.I12 I1.I16.I0.I11 I1.I16.I0.I10 I1.I16.I0.I13 I1.I16.I0.I12 I1.I15.I7.I11 I1.I15.I7.I10 I1.I15.I7.I13 I1.I15.I7.I12 I1.I15.I6.I11 I1.I15.I6.I10 I1.I15.I6.I13 I1.I15.I6.I12 I1.I15.I5.I11 I1.I15.I5.I10 I1.I15.I5.I13 I1.I15.I5.I12 I1.I15.I4.I11 I1.I15.I4.I10 I1.I15.I4.I13 I1.I15.I4.I12 I1.I15.I3.I11 I1.I15.I3.I10 I1.I15.I3.I13 I1.I15.I3.I12 I1.I15.I2.I11 I1.I15.I2.I10 I1.I15.I2.I13 I1.I15.I2.I12 I1.I15.I1.I11 I1.I15.I1.I10 I1.I15.I1.I13 I1.I15.I1.I12 I1.I15.I0.I11 I1.I15.I0.I10 I1.I15.I0.I13 I1.I15.I0.I12"
)
"sobel_operator_8bit_RCA_schematic" "subckt" (
""
"C_In C_Out Gnd S<7> S<6> S<5> S<4> S<3> S<2> S<1> S<0> Vdd a<7> a<6> a<5> a<4> a<3> a<2> a<1> a<0> b<7> b<6> b<5> b<4> b<3> b<2> b<1> b<0>"
"I7.I1.I0.I16 I7.I3.I16 I7.I2.I16 I7.I10 I7.I9 I7.I8 I7.I7 I7.I6"
)
"Transform" "subckt" (
""
"C_Out Gnd NegOne_A<7> NegOne_A<6> NegOne_A<5> NegOne_A<4> NegOne_A<3> NegOne_A<2> NegOne_A<1> NegOne_A<0> NegOne_B<7> NegOne_B<6> NegOne_B<5> NegOne_B<4> NegOne_B<3> NegOne_B<2> NegOne_B<1> NegOne_B<0> NegTwo<7> NegTwo<6> NegTwo<5> NegTwo<4> NegTwo<3> NegTwo<2> NegTwo<1> NegTwo<0> One_A<7> One_A<6> One_A<5> One_A<4> One_A<3> One_A<2> One_A<1> One_A<0> One_B<7> One_B<6> One_B<5> One_B<4> One_B<3> One_B<2> One_B<1> One_B<0> Out<7> Out<6> Out<5> Out<4> Out<3> Out<2> Out<1> Out<0> Two<7> Two<6> Two<5> Two<4> Two<3> Two<2> Two<1> Two<0> Vdd one<7> one<6> one<5> one<4> one<3> one<2> one<1> one<0>"
"I7"
)
END
