HEADER
"PSFversion" "1.00"
"M26n M25n M24n M23n M22n M21n M20n M19n M18n M17n M16n M15n M14n M13n" "NCSU_Devices_FreePDK45_NMOS_VTG_spectre"
"M27n M12n M11n M10n M9n M8n M7n M6n M5n M4n M3n M2n M1n M0n" "NCSU_Devices_FreePDK45_PMOS_VTG_spectre"
"av" ":1v"
"bv" ":2v"
"c_inv" ":3v"
"c_outv" ":4v"
"gndv" ":5v"
"sumv" ":6v"
"vddv" ":7v"
