HEADER
"PSFversion" "1.00"
"I16n" "sobel_operator_8bit_RCA_schematic"
"I8n I7n I6n I5n I4n I3n I2n I1n" "inverter"
"C_Outv" ":1v"
"Gndv" ":2v"
"In<7>v" ":3v"
"In<6>v" ":4v"
"In<5>v" ":5v"
"In<4>v" ":6v"
"In<3>v" ":7v"
"In<2>v" ":8v"
"In<1>v" ":9v"
"In<0>v" ":10v"
"Out<7>v" ":11v"
"Out<6>v" ":12v"
"Out<5>v" ":13v"
"Out<4>v" ":14v"
"Out<3>v" ":15v"
"Out<2>v" ":16v"
"Out<1>v" ":17v"
"Out<0>v" ":18v"
"Vddv" ":19v"
"one<7>v" ":20v"
"one<6>v" ":21v"
"one<5>v" ":22v"
"one<4>v" ":23v"
"one<3>v" ":24v"
"one<2>v" ":25v"
"one<1>v" ":26v"
"one<0>v" ":27v"
