HEADER
"PSFversion" "1.00"
"I21n I20n I19n I18n I17n I16n I15n I14n I13n I12n I11n I2n I1n I0n" "AND2"
"I22n" "inverter"
"I28n I27n I26n I25n I24n I23n" "OR2"
"Gndv" ":1v"
"In<7>v" ":2v"
"In<6>v" ":3v"
"In<5>v" ":4v"
"In<4>v" ":5v"
"In<3>v" ":6v"
"In<2>v" ":7v"
"In<1>v" ":8v"
"In<0>v" ":9v"
"Out<7>v" ":10v"
"Out<6>v" ":11v"
"Out<5>v" ":12v"
"Out<4>v" ":13v"
"Out<3>v" ":14v"
"Out<2>v" ":15v"
"Out<1>v" ":16v"
"Out<0>v" ":17v"
"Sv" ":18v"
"Vddv" ":19v"
