HEADER
"PSFversion" "1.00"
"I18n I11n I10n I9n I13n I14n I17n I16n I15n" "sobel_operator_8bit_reg_schematic"
"BL<7>v" ":1v"
"BL<6>v" ":2v"
"BL<5>v" ":3v"
"BL<4>v" ":4v"
"BL<3>v" ":5v"
"BL<2>v" ":6v"
"BL<1>v" ":7v"
"BL<0>v" ":8v"
"BM<7>v" ":9v"
"BM<6>v" ":10v"
"BM<5>v" ":11v"
"BM<4>v" ":12v"
"BM<3>v" ":13v"
"BM<2>v" ":14v"
"BM<1>v" ":15v"
"BM<0>v" ":16v"
"BR<7>v" ":17v"
"BR<6>v" ":18v"
"BR<5>v" ":19v"
"BR<4>v" ":20v"
"BR<3>v" ":21v"
"BR<2>v" ":22v"
"BR<1>v" ":23v"
"BR<0>v" ":24v"
"ML<7>v" ":25v"
"ML<6>v" ":26v"
"ML<5>v" ":27v"
"ML<4>v" ":28v"
"ML<3>v" ":29v"
"ML<2>v" ":30v"
"ML<1>v" ":31v"
"ML<0>v" ":32v"
"MR<7>v" ":33v"
"MR<6>v" ":34v"
"MR<5>v" ":35v"
"MR<4>v" ":36v"
"MR<3>v" ":37v"
"MR<2>v" ":38v"
"MR<1>v" ":39v"
"MR<0>v" ":40v"
"TL<7>v" ":41v"
"TL<6>v" ":42v"
"TL<5>v" ":43v"
"TL<4>v" ":44v"
"TL<3>v" ":45v"
"TL<2>v" ":46v"
"TL<1>v" ":47v"
"TL<0>v" ":48v"
"TM<7>v" ":49v"
"TM<6>v" ":50v"
"TM<5>v" ":51v"
"TM<4>v" ":52v"
"TM<3>v" ":53v"
"TM<2>v" ":54v"
"TM<1>v" ":55v"
"TM<0>v" ":56v"
"TR<7>v" ":57v"
"TR<6>v" ":58v"
"TR<5>v" ":59v"
"TR<4>v" ":60v"
"TR<3>v" ":61v"
"TR<2>v" ":62v"
"TR<1>v" ":63v"
"TR<0>v" ":64v"
"bot_L<7>v" ":65v"
"bot_L<6>v" ":66v"
"bot_L<5>v" ":67v"
"bot_L<4>v" ":68v"
"bot_L<3>v" ":69v"
"bot_L<2>v" ":70v"
"bot_L<1>v" ":71v"
"bot_L<0>v" ":72v"
"clkv" ":73v"
"gndv" ":74v"
"mid_L<7>v" ":75v"
"mid_L<6>v" ":76v"
"mid_L<5>v" ":77v"
"mid_L<4>v" ":78v"
"mid_L<3>v" ":79v"
"mid_L<2>v" ":80v"
"mid_L<1>v" ":81v"
"mid_L<0>v" ":82v"
"up_L<7>v" ":83v"
"up_L<6>v" ":84v"
"up_L<5>v" ":85v"
"up_L<4>v" ":86v"
"up_L<3>v" ":87v"
"up_L<2>v" ":88v"
"up_L<1>v" ":89v"
"up_L<0>v" ":90v"
"vddv" ":91v"
