HEADER
"PSFversion" "1.00"
"V7n V6n V5n V4n V3n V2n V1n V0n" "analogLib_vdc_spectre"
"One<7>v" ":1v"
"One<6>v" ":2v"
"One<5>v" ":3v"
"One<4>v" ":4v"
"One<3>v" ":5v"
"One<2>v" ":6v"
"One<1>v" ":7v"
"One<0>v" ":8v"
