HEADER
"PSFversion" "1.00"
"I7n I6n I5n I4n I3n I2n I1n I0n" "full_adder"
"C_Inv" ":1v"
"C_Outv" ":2v"
"Gndv" ":3v"
"S<7>v" ":4v"
"S<6>v" ":5v"
"S<5>v" ":6v"
"S<4>v" ":7v"
"S<3>v" ":8v"
"S<2>v" ":9v"
"S<1>v" ":10v"
"S<0>v" ":11v"
"Vddv" ":12v"
"a<7>v" ":13v"
"a<6>v" ":14v"
"a<5>v" ":15v"
"a<4>v" ":16v"
"a<3>v" ":17v"
"a<2>v" ":18v"
"a<1>v" ":19v"
"a<0>v" ":20v"
"b<7>v" ":21v"
"b<6>v" ":22v"
"b<5>v" ":23v"
"b<4>v" ":24v"
"b<3>v" ":25v"
"b<2>v" ":26v"
"b<1>v" ":27v"
"b<0>v" ":28v"
