HEADER
"PSFversion" "1.00"
"design" "(\"sobel_operator\" \"test_DFF_syn\" \"schematic\" \"\")"
"simulator" "spectre"
"temperature" "27"
"host" ""
"date" "May  2 16:40:55 2022"
"title" ""
"analysisList" "()"
END
