HEADER
"PSFversion" "1.00"
"Time Stamp" "Jun  1 20:33:46 2022"
TYPE
"variable" STRUCT(
"value" FLOAT DOUBLE
) PROP( "key" "element" )
VALUE
"temp" "variable" ( 0.0 ) PROP( )
END
