HEADER
"PSFversion" "1.00"
"V0n" "analogLib_vpulse_spectre"
"clkv" ":1v"
