HEADER
"PSFversion" "1.00"
"M24n M22n M21n M20n M19n M18n M17n M16n M15n M14n M13n M12n" "NCSU_Devices_FreePDK45_NMOS_VTG_spectre"
"M23n M10n M9n M8n M7n M6n M5n M4n M3n M2n M1n M0n" "NCSU_Devices_FreePDK45_PMOS_VTG_spectre"
"Dv" ":1v"
"Qv" ":2v"
"Q_barv" ":3v"
"clkv" ":4v"
"gndv" ":5v"
"vddv" ":6v"
