HEADER
"PSFversion" "1.00"
"M0n" "NCSU_Devices_FreePDK45_PMOS_VTG_spectre"
"M1n" "NCSU_Devices_FreePDK45_NMOS_VTG_spectre"
"Av" ":1v"
"GNDv" ":2v"
"VDDv" ":3v"
"Yv" ":4v"
