HEADER
"PSFversion" "1.00"
"I2n I1n I0n" "DFF_sync"
"V0n" "analogLib_vbit_spectre"
"I3n" "clock"
"V2n V1n" "analogLib_vdc_spectre"
