HEADER
"PSFversion" "1.00"
"I8n I7n I6n I5n I3n I2n I1n I4n" "OR2"
"Gndv" ":1v"
"In<15>v" ":2v"
"In<14>v" ":3v"
"In<13>v" ":4v"
"In<12>v" ":5v"
"In<11>v" ":6v"
"In<10>v" ":7v"
"In<9>v" ":8v"
"In<8>v" ":9v"
"In<7>v" ":10v"
"In<6>v" ":11v"
"In<5>v" ":12v"
"In<4>v" ":13v"
"In<3>v" ":14v"
"In<2>v" ":15v"
"In<1>v" ":16v"
"In<0>v" ":17v"
"Out<7>v" ":18v"
"Out<6>v" ":19v"
"Out<5>v" ":20v"
"Out<4>v" ":21v"
"Out<3>v" ":22v"
"Out<2>v" ":23v"
"Out<1>v" ":24v"
"Out<0>v" ":25v"
"Sv" ":26v"
"Vddv" ":27v"
"bit7v" ":28v"
