HEADER
"PSFversion" "1.00"
"I0n" "sobel_operator_16bit_RCA_schematic"
"I1n" "Shifter"
"I2n" "OR_array"
"I3n" "FinalSum_help"
"A<15>v" ":1v"
"A<14>v" ":2v"
"A<13>v" ":3v"
"A<12>v" ":4v"
"A<11>v" ":5v"
"A<10>v" ":6v"
"A<9>v" ":7v"
"A<8>v" ":8v"
"A<7>v" ":9v"
"A<6>v" ":10v"
"A<5>v" ":11v"
"A<4>v" ":12v"
"A<3>v" ":13v"
"A<2>v" ":14v"
"A<1>v" ":15v"
"A<0>v" ":16v"
"B<15>v" ":17v"
"B<14>v" ":18v"
"B<13>v" ":19v"
"B<12>v" ":20v"
"B<11>v" ":21v"
"B<10>v" ":22v"
"B<9>v" ":23v"
"B<8>v" ":24v"
"B<7>v" ":25v"
"B<6>v" ":26v"
"B<5>v" ":27v"
"B<4>v" ":28v"
"B<3>v" ":29v"
"B<2>v" ":30v"
"B<1>v" ":31v"
"B<0>v" ":32v"
"C_inv" ":33v"
"Gndv" ":34v"
"Out<7>v" ":35v"
"Out<6>v" ":36v"
"Out<5>v" ":37v"
"Out<4>v" ":38v"
"Out<3>v" ":39v"
"Out<2>v" ":40v"
"Out<1>v" ":41v"
"Out<0>v" ":42v"
"Vddv" ":43v"
