HEADER
"PSFversion" "1.00"
"I26n" "sobel_operator_16bit_RCA_schematic"
"I24n I23n I22n I21n I20n I19n I18n I17n I8n I7n I6n I5n I4n I3n I2n I1n" "inverter"
"C_Outv" ":1v"
"Gndv" ":2v"
"In<15>v" ":3v"
"In<14>v" ":4v"
"In<13>v" ":5v"
"In<12>v" ":6v"
"In<11>v" ":7v"
"In<10>v" ":8v"
"In<9>v" ":9v"
"In<8>v" ":10v"
"In<7>v" ":11v"
"In<6>v" ":12v"
"In<5>v" ":13v"
"In<4>v" ":14v"
"In<3>v" ":15v"
"In<2>v" ":16v"
"In<1>v" ":17v"
"In<0>v" ":18v"
"Out<15>v" ":19v"
"Out<14>v" ":20v"
"Out<13>v" ":21v"
"Out<12>v" ":22v"
"Out<11>v" ":23v"
"Out<10>v" ":24v"
"Out<9>v" ":25v"
"Out<8>v" ":26v"
"Out<7>v" ":27v"
"Out<6>v" ":28v"
"Out<5>v" ":29v"
"Out<4>v" ":30v"
"Out<3>v" ":31v"
"Out<2>v" ":32v"
"Out<1>v" ":33v"
"Out<0>v" ":34v"
"Vddv" ":35v"
"one<15>v" ":36v"
"one<14>v" ":37v"
"one<13>v" ":38v"
"one<12>v" ":39v"
"one<11>v" ":40v"
"one<10>v" ":41v"
"one<9>v" ":42v"
"one<8>v" ":43v"
"one<7>v" ":44v"
"one<6>v" ":45v"
"one<5>v" ":46v"
"one<4>v" ":47v"
"one<3>v" ":48v"
"one<2>v" ":49v"
"one<1>v" ":50v"
"one<0>v" ":51v"
