HEADER
"PSFversion" "1.00"
"M1n M0n" "NCSU_Devices_FreePDK45_NMOS_VTG_spectre"
"M3n M2n" "NCSU_Devices_FreePDK45_PMOS_VTG_spectre"
"I0n" "inverter"
"Av" ":1v"
"Bv" ":2v"
"Gndv" ":3v"
"Outv" ":4v"
"Vddv" ":5v"
