HEADER
"PSFversion" "1.00"
"I13n I16n I15n I5n I4n I3n I2n I1n I0n" "OR2"
"C_inv" ":1v"
"Gndv" ":2v"
"In<7>v" ":3v"
"In<6>v" ":4v"
"In<5>v" ":5v"
"In<4>v" ":6v"
"In<3>v" ":7v"
"In<2>v" ":8v"
"In<1>v" ":9v"
"In<0>v" ":10v"
"Outv" ":11v"
"Vddv" ":12v"
"bit7v" ":13v"
