HEADER
"PSFversion" "1.00"
"I21n I20n I19n I18n I17n I16n I15n I14n I13n I12n I11n I2n I1n I0n" "AND2"
"I22n" "inverter"
"I28n I27n I26n I25n I24n I23n" "OR2"
"I32n" "sobel_operator_8bit_to_16bit_schematic"
"I33n" "NAND2"
"Gndv" ":1v"
"In<7>v" ":2v"
"In<6>v" ":3v"
"In<5>v" ":4v"
"In<4>v" ":5v"
"In<3>v" ":6v"
"In<2>v" ":7v"
"In<1>v" ":8v"
"In<0>v" ":9v"
"Out<15>v" ":10v"
"Out<14>v" ":11v"
"Out<13>v" ":12v"
"Out<12>v" ":13v"
"Out<11>v" ":14v"
"Out<10>v" ":15v"
"Out<9>v" ":16v"
"Out<8>v" ":17v"
"Out<7>v" ":18v"
"Out<6>v" ":19v"
"Out<5>v" ":20v"
"Out<4>v" ":21v"
"Out<3>v" ":22v"
"Out<2>v" ":23v"
"Out<1>v" ":24v"
"Out<0>v" ":25v"
"Sv" ":26v"
"Vddv" ":27v"
