HEADER
"PSFversion" "1.00"
"I15n I14n I13n I12n I11n I10n I9n I8n I7n I6n I5n I4n I3n I2n I1n I0n" "full_adder"
"A<15>v" ":1v"
"A<14>v" ":2v"
"A<13>v" ":3v"
"A<12>v" ":4v"
"A<11>v" ":5v"
"A<10>v" ":6v"
"A<9>v" ":7v"
"A<8>v" ":8v"
"A<7>v" ":9v"
"A<6>v" ":10v"
"A<5>v" ":11v"
"A<4>v" ":12v"
"A<3>v" ":13v"
"A<2>v" ":14v"
"A<1>v" ":15v"
"A<0>v" ":16v"
"B<15>v" ":17v"
"B<14>v" ":18v"
"B<13>v" ":19v"
"B<12>v" ":20v"
"B<11>v" ":21v"
"B<10>v" ":22v"
"B<9>v" ":23v"
"B<8>v" ":24v"
"B<7>v" ":25v"
"B<6>v" ":26v"
"B<5>v" ":27v"
"B<4>v" ":28v"
"B<3>v" ":29v"
"B<2>v" ":30v"
"B<1>v" ":31v"
"B<0>v" ":32v"
"C_Outv" ":33v"
"C_inv" ":34v"
"Gndv" ":35v"
"S<15>v" ":36v"
"S<14>v" ":37v"
"S<13>v" ":38v"
"S<12>v" ":39v"
"S<11>v" ":40v"
"S<10>v" ":41v"
"S<9>v" ":42v"
"S<8>v" ":43v"
"S<7>v" ":44v"
"S<6>v" ":45v"
"S<5>v" ":46v"
"S<4>v" ":47v"
"S<3>v" ":48v"
"S<2>v" ":49v"
"S<1>v" ":50v"
"S<0>v" ":51v"
"Vddv" ":52v"
