HEADER
"PSFversion" "1.00"
"V15n V14n V13n V12n V11n V10n V9n V8n V7n V6n V5n V4n V3n V2n V1n V0n" "analogLib_vdc_spectre"
"One<7>v" ":1v"
"One<6>v" ":2v"
"One<5>v" ":3v"
"One<4>v" ":4v"
"One<3>v" ":5v"
"One<2>v" ":6v"
"One<1>v" ":7v"
"One<0>v" ":8v"
"Zero<7>v" ":9v"
"Zero<6>v" ":10v"
"Zero<5>v" ":11v"
"Zero<4>v" ":12v"
"Zero<3>v" ":13v"
"Zero<2>v" ":14v"
"Zero<1>v" ":15v"
"Zero<0>v" ":16v"
