HEADER
"PSFversion" "1.00"
"I2n I0n" "Transform"
"I1n" "FinalSum"
"I3n" "shift_reg"
"I4n" "XOR2"
"Bot_L<7>v" ":1v"
"Bot_L<6>v" ":2v"
"Bot_L<5>v" ":3v"
"Bot_L<4>v" ":4v"
"Bot_L<3>v" ":5v"
"Bot_L<2>v" ":6v"
"Bot_L<1>v" ":7v"
"Bot_L<0>v" ":8v"
"Clkv" ":9v"
"Gndv" ":10v"
"Mid_L<7>v" ":11v"
"Mid_L<6>v" ":12v"
"Mid_L<5>v" ":13v"
"Mid_L<4>v" ":14v"
"Mid_L<3>v" ":15v"
"Mid_L<2>v" ":16v"
"Mid_L<1>v" ":17v"
"Mid_L<0>v" ":18v"
"Out<7>v" ":19v"
"Out<6>v" ":20v"
"Out<5>v" ":21v"
"Out<4>v" ":22v"
"Out<3>v" ":23v"
"Out<2>v" ":24v"
"Out<1>v" ":25v"
"Out<0>v" ":26v"
"Top_L<7>v" ":27v"
"Top_L<6>v" ":28v"
"Top_L<5>v" ":29v"
"Top_L<4>v" ":30v"
"Top_L<3>v" ":31v"
"Top_L<2>v" ":32v"
"Top_L<1>v" ":33v"
"Top_L<0>v" ":34v"
"Vddv" ":35v"
"one<7>v" ":36v"
"one<6>v" ":37v"
"one<5>v" ":38v"
"one<4>v" ":39v"
"one<3>v" ":40v"
"one<2>v" ":41v"
"one<1>v" ":42v"
"one<0>v" ":43v"
