HEADER
"PSFversion" "1.00"
"I0n" "Shifter"
"I1n" "Minus2"
"I20n I21n" "Minus1"
"I17n I18n I19n" "XOR2"
"I31n I30n I24n I23n I22n" "sobel_operator_8bit_to_16bit_schematic"
"I27n I25n I26n I29n I28n" "sobel_operator_16bit_RCA_schematic"
"C_Outv" ":1v"
"Gndv" ":2v"
"NegOne_A<7>v" ":3v"
"NegOne_A<6>v" ":4v"
"NegOne_A<5>v" ":5v"
"NegOne_A<4>v" ":6v"
"NegOne_A<3>v" ":7v"
"NegOne_A<2>v" ":8v"
"NegOne_A<1>v" ":9v"
"NegOne_A<0>v" ":10v"
"NegOne_B<7>v" ":11v"
"NegOne_B<6>v" ":12v"
"NegOne_B<5>v" ":13v"
"NegOne_B<4>v" ":14v"
"NegOne_B<3>v" ":15v"
"NegOne_B<2>v" ":16v"
"NegOne_B<1>v" ":17v"
"NegOne_B<0>v" ":18v"
"NegTwo<7>v" ":19v"
"NegTwo<6>v" ":20v"
"NegTwo<5>v" ":21v"
"NegTwo<4>v" ":22v"
"NegTwo<3>v" ":23v"
"NegTwo<2>v" ":24v"
"NegTwo<1>v" ":25v"
"NegTwo<0>v" ":26v"
"One_A<7>v" ":27v"
"One_A<6>v" ":28v"
"One_A<5>v" ":29v"
"One_A<4>v" ":30v"
"One_A<3>v" ":31v"
"One_A<2>v" ":32v"
"One_A<1>v" ":33v"
"One_A<0>v" ":34v"
"One_B<7>v" ":35v"
"One_B<6>v" ":36v"
"One_B<5>v" ":37v"
"One_B<4>v" ":38v"
"One_B<3>v" ":39v"
"One_B<2>v" ":40v"
"One_B<1>v" ":41v"
"One_B<0>v" ":42v"
"Out<15>v" ":43v"
"Out<14>v" ":44v"
"Out<13>v" ":45v"
"Out<12>v" ":46v"
"Out<11>v" ":47v"
"Out<10>v" ":48v"
"Out<9>v" ":49v"
"Out<8>v" ":50v"
"Out<7>v" ":51v"
"Out<6>v" ":52v"
"Out<5>v" ":53v"
"Out<4>v" ":54v"
"Out<3>v" ":55v"
"Out<2>v" ":56v"
"Out<1>v" ":57v"
"Out<0>v" ":58v"
"Two<7>v" ":59v"
"Two<6>v" ":60v"
"Two<5>v" ":61v"
"Two<4>v" ":62v"
"Two<3>v" ":63v"
"Two<2>v" ":64v"
"Two<1>v" ":65v"
"Two<0>v" ":66v"
"Vddv" ":67v"
"one<7>v" ":68v"
"one<6>v" ":69v"
"one<5>v" ":70v"
"one<4>v" ":71v"
"one<3>v" ":72v"
"one<2>v" ":73v"
"one<1>v" ":74v"
"one<0>v" ":75v"
