HEADER
"PSFversion" "1.00"
"M2n M3n" "NCSU_Devices_FreePDK45_NMOS_VTG_spectre"
"M0n M1n" "NCSU_Devices_FreePDK45_PMOS_VTG_spectre"
"Av" ":1v"
"Bv" ":2v"
"Yv" ":3v"
"gndv" ":4v"
"vddv" ":5v"
