HEADER
"PSFversion" "1.00"
"V23n V22n V21n V20n V19n V18n V17n V16n V15n V14n V13n V12n V11n V10n V9n V8n V7n V6n V5n V4n V3n V2n V1n V0n" "analogLib_vbit_spectre"
"bottom<7>v" ":1v"
"bottom<6>v" ":2v"
"bottom<5>v" ":3v"
"bottom<4>v" ":4v"
"bottom<3>v" ":5v"
"bottom<2>v" ":6v"
"bottom<1>v" ":7v"
"bottom<0>v" ":8v"
"middle<7>v" ":9v"
"middle<6>v" ":10v"
"middle<5>v" ":11v"
"middle<4>v" ":12v"
"middle<3>v" ":13v"
"middle<2>v" ":14v"
"middle<1>v" ":15v"
"middle<0>v" ":16v"
"top<7>v" ":17v"
"top<6>v" ":18v"
"top<5>v" ":19v"
"top<4>v" ":20v"
"top<3>v" ":21v"
"top<2>v" ":22v"
"top<1>v" ":23v"
"top<0>v" ":24v"
