HEADER
"PSFversion" "1.00"
"I7n I6n I5n I4n I3n I2n I1n I0n" "DFF_sync"
"D<7>v" ":1v"
"D<6>v" ":2v"
"D<5>v" ":3v"
"D<4>v" ":4v"
"D<3>v" ":5v"
"D<2>v" ":6v"
"D<1>v" ":7v"
"D<0>v" ":8v"
"Q<7>v" ":9v"
"Q<6>v" ":10v"
"Q<5>v" ":11v"
"Q<4>v" ":12v"
"Q<3>v" ":13v"
"Q<2>v" ":14v"
"Q<1>v" ":15v"
"Q<0>v" ":16v"
"Q_bar<7>v" ":17v"
"Q_bar<6>v" ":18v"
"Q_bar<5>v" ":19v"
"Q_bar<4>v" ":20v"
"Q_bar<3>v" ":21v"
"Q_bar<2>v" ":22v"
"Q_bar<1>v" ":23v"
"Q_bar<0>v" ":24v"
"clkv" ":25v"
"gndv" ":26v"
"vddv" ":27v"
